<?xml version="1.0"?>
<VTKFile type="UnstructuredGrid"  version="0.1"  >
<UnstructuredGrid>
<Piece  NumberOfPoints="7353" NumberOfCells="13990">
<Points>
<DataArray  type="Float64"  NumberOfComponents="3"  format="ascii">-0.3 0 0  0.3 0 0  5 0 0  5 0.5 0  -5 0.5 0  -5 0 0  0.2985554179952057 0.02940514216439048 0  0.2942355840977032 0.05852709672180423 0  0.2870821006639274 0.08708540336007313 0  0.2771638596462532 0.1148050299681684 0  0.2645763791322086 0.1414190213701461 0  0.2494408834296523 0.1666710702966614 0  0.2319031356521943 0.1903179856836446 0  0.212132033889947 0.2121320348219815 0  0.1903179846599683 0.2319031364923038 0  0.1666710691977976 0.2494408841638895 0  0.1414190202036793 0.264576379755698 0  0.1148050287504613 0.277163860150644 0  0.08708540209850373 0.2870821010466204 0  0.0585270954160826 0.2942355843574274 0  0.02940514080542908 0.2985554181290517 0  -1.379915696657678e-09 0.3 0  -0.0294051433958062 0.2985554178739218 0  -0.05852709779174745 0.2942355838848782 0  -0.08708540425685798 0.2870821003918907 0  -0.1148050306733768 0.2771638593541463 0  -0.141419021916266 0.2645763788403014 0  -0.1666710706662956 0.2494408831826705 0  -0.1903179858833668 0.2319031354882865 0  -0.2121320348654665 0.2121320338464621 0  -0.2319031364165032 0.1903179847523315 0  -0.2494408839900467 0.1666710694579718 0  -0.2645763795095463 0.1414190206641968 0  -0.2771638598924455 0.1148050293738077 0  -0.2870821008007191 0.08708540290913139 0  -0.2942355841569868 0.05852709642376556 0  -0.2985554180094689 0.02940514201957286 0  -0.3299363057324299 0 0  -0.3598726114648668 0 0  -0.3898089171973007 0 0  -0.4197452229297279 0 0  -0.4496815286621489 0 0  -0.4796178343945701 0 0  -0.5095541401270065 0 0  -0.5394904458594454 0 0  -0.5694267515918842 0 0  -0.5993630573243229 0 0  -0.6292993630567618 0 0  -0.6592356687892005 0 0  -0.6891719745216525 0 0  -0.7191082802540999 0 0  -0.7490445859865436 0 0  -0.7789808917190001 0 0  -0.8089171974514566 0 0  -0.8388535031839131 0 0  -0.8687898089163695 0 0  -0.8987261146488128 0 0  -0.9286624203812288 0 0  -0.9585987261136146 0 0  -0.9885350318460002 0 0  -1.018471337578386 0 0  -1.048407643310772 0 0  -1.078343949043166 0 0  -1.108280254775587 0 0  -1.138216560507973 0 0  -1.168152866240358 0 0  -1.198089171972744 0 0  -1.22802547770513 0 0  -1.25796178343752 0 0  -1.287898089169941 0 0  -1.317834394902362 0 0  -1.347770700634783 0 0  -1.377707006367204 0 0  -1.407643312099626 0 0  -1.437579617832047 0 0  -1.467515923564433 0 0  -1.497452229296819 0 0  -1.527388535029223 0 0  -1.557324840761644 0 0  -1.587261146494065 0 0  -1.617197452226487 0 0  -1.647133757958878 0 0  -1.677070063691263 0 0  -1.707006369423663 0 0  -1.736942675156084 0 0  -1.766878980888506 0 0  -1.796815286620927 0 0  -1.826751592353323 0 0  -1.856687898085708 0 0  -1.886624203818094 0 0  -1.91656050955048 0 0  -1.946496815282866 0 0  -1.97643312101528 0 0  -2.00636942674768 0 0  -2.036305732480078 0 0  -2.0662420382125 0 0  -2.096178343944921 0 0  -2.126114649677278 0 0  -2.156050955409629 0 0  -2.185987261141979 0 0  -2.215923566874345 0 0  -2.245859872606766 0 0  -2.275796178339187 0 0  -2.305732484071608 0 0  -2.335668789804029 0 0  -2.365605095536428 0 0  -2.395541401268779 0 0  -2.425477707001129 0 0  -2.45541401273354 0 0  -2.485350318465961 0 0  -2.515286624198353 0 0  -2.545222929930703 0 0  -2.575159235663054 0 0  -2.605095541395405 0 0  -2.635031847127806 0 0  -2.664968152860263 0 0  -2.694904458592774 0 0  -2.72484076432534 0 0  -2.754777070057973 0 0  -2.784713375790548 0 0  -2.814649681523069 0 0  -2.84458598725556 0 0  -2.874522292988062 0 0  -2.904458598720625 0 0  -2.934394904453253 0 0  -2.964331210185837 0 0  -2.994267515918367 0 0  -3.024203821650876 0 0  -3.054140127383438 0 0  -3.084076433116071 0 0  -3.114012738848705 0 0  -3.143949044581299 0 0  -3.173885350313838 0 0  -3.203821656046337 0 0  -3.2337579617789 0 0  -3.263694267511524 0 0  -3.293630573244158 0 0  -3.323566878976762 0 0  -3.35350318470931 0 0  -3.383439490441801 0 0  -3.413375796174362 0 0  -3.443312101906977 0 0  -3.47324840763961 0 0  -3.503184713372223 0 0  -3.533121019104781 0 0  -3.563057324837273 0 0  -3.592993630569824 0 0  -3.62292993630243 0 0  -3.652866242035063 0 0  -3.682802547767686 0 0  -3.712738853500248 0 0  -3.742675159232745 0 0  -3.772611464965286 0 0  -3.802547770697883 0 0  -3.832484076430516 0 0  -3.862420382163148 0 0  -3.89235668789571 0 0  -3.922292993628216 0 0  -3.952229299360749 0 0  -3.98216560509336 0 0  -4.012101910826055 0 0  -4.042038216558689 0 0  -4.071974522291196 0 0  -4.101910828023688 0 0  -4.13184713375618 0 0  -4.161783439488701 0 0  -4.191719745221334 0 0  -4.221656050953968 0 0  -4.251592356686494 0 0  -4.281528662418985 0 0  -4.311464968151477 0 0  -4.341401273883968 0 0  -4.371337579616459 0 0  -4.401273885348951 0 0  -4.431210191081531 0 0  -4.461146496814164 0 0  -4.491082802546774 0 0  -4.521019108279265 0 0  -4.550955414011757 0 0  -4.580891719744248 0 0  -4.61082802547681 0 0  -4.640764331209444 0 0  -4.670700636942071 0 0  -4.700636942674563 0 0  -4.730573248407055 0 0  -4.760509554139546 0 0  -4.790445859872087 0 0  -4.820382165604722 0 0  -4.850318471337355 0 0  -4.880254777069859 0 0  -4.910191082802352 0 0  -4.940127388534843 0 0  -4.970063694267366 0 0  -5 0.0294117647058227 0  -5 0.05882352941165839 0  -5 0.08823529411746014 0  -5 0.1176470588232567 0  -5 0.1470588235290533 0  -5 0.1764705882348499 0  -5 0.2058823529406464 0  -5 0.235294117646443 0  -5 0.2647058823523212 0  -5 0.2941176470582811 0  -5 0.323529411764241 0  -5 0.352941176470201 0  -5 0.3823529411761608 0  -5 0.4117647058821207 0  -5 0.4411764705880806 0  -5 0.4705882352940405 0  -4.970059880239484 0.5 0  -4.940119760478968 0.5 0  -4.910179640718452 0.5 0  -4.880239520957936 0.5 0  -4.85029940119742 0.5 0  -4.820359281436904 0.5 0  -4.790419161676389 0.5 0  -4.760479041915873 0.5 0  -4.730538922155357 0.5 0  -4.700598802394841 0.5 0  -4.670658682634325 0.5 0  -4.640718562873809 0.5 0  -4.610778443113293 0.5 0  -4.580838323352777 0.5 0  -4.55089820359226 0.5 0  -4.520958083831744 0.5 0  -4.491017964071229 0.5 0  -4.461077844310713 0.5 0  -4.431137724550197 0.5 0  -4.401197604789681 0.5 0  -4.371257485029165 0.5 0  -4.341317365268649 0.5 0  -4.311377245508133 0.5 0  -4.281437125747617 0.5 0  -4.251497005987101 0.5 0  -4.221556886226585 0.5 0  -4.191616766466069 0.5 0  -4.161676646705553 0.5 0  -4.131736526945037 0.5 0  -4.101796407184521 0.5 0  -4.071856287424006 0.5 0  -4.04191616766349 0.5 0  -4.011976047902974 0.5 0  -3.982035928142458 0.5 0  -3.952095808381942 0.5 0  -3.922155688621426 0.5 0  -3.89221556886091 0.5 0  -3.862275449100394 0.5 0  -3.832335329339878 0.5 0  -3.80239520957939 0.5 0  -3.772455089818908 0.5 0  -3.742514970058441 0.5 0  -3.712574850298025 0.5 0  -3.682634730537609 0.5 0  -3.652694610777214 0.5 0  -3.622754491016831 0.5 0  -3.592814371256448 0.5 0  -3.562874251496066 0.5 0  -3.532934131735682 0.5 0  -3.5029940119753 0.5 0  -3.473053892214916 0.5 0  -3.443113772454534 0.5 0  -3.413173652694151 0.5 0  -3.383233532933768 0.5 0  -3.353293413173385 0.5 0  -3.323353293413002 0.5 0  -3.293413173652619 0.5 0  -3.263473053892236 0.5 0  -3.233532934131853 0.5 0  -3.20359281437147 0.5 0  -3.173652694611087 0.5 0  -3.143712574850704 0.5 0  -3.113772455090321 0.5 0  -3.083832335329938 0.5 0  -3.053892215569555 0.5 0  -3.023952095809172 0.5 0  -2.994011976048789 0.5 0  -2.964071856288406 0.5 0  -2.934131736528023 0.5 0  -2.90419161676764 0.5 0  -2.874251497007257 0.5 0  -2.844311377246874 0.5 0  -2.81437125748649 0.5 0  -2.784431137726108 0.5 0  -2.754491017965725 0.5 0  -2.724550898205341 0.5 0  -2.694610778444958 0.5 0  -2.664670658684575 0.5 0  -2.634730538924192 0.5 0  -2.604790419163809 0.5 0  -2.574850299403426 0.5 0  -2.544910179643043 0.5 0  -2.51497005988266 0.5 0  -2.485029940122277 0.5 0  -2.455089820361894 0.5 0  -2.425149700601511 0.5 0  -2.395209580841128 0.5 0  -2.365269461080745 0.5 0  -2.335329341320362 0.5 0  -2.305389221559979 0.5 0  -2.275449101799595 0.5 0  -2.245508982039213 0.5 0  -2.215568862278829 0.5 0  -2.185628742518446 0.5 0  -2.155688622758063 0.5 0  -2.12574850299768 0.5 0  -2.095808383237297 0.5 0  -2.065868263476914 0.5 0  -2.035928143716531 0.5 0  -2.005988023956148 0.5 0  -1.976047904195765 0.5 0  -1.946107784435382 0.5 0  -1.916167664674999 0.5 0  -1.886227544914616 0.5 0  -1.856287425154233 0.5 0  -1.826347305393849 0.5 0  -1.796407185633467 0.5 0  -1.766467065873084 0.5 0  -1.736526946112701 0.5 0  -1.706586826352318 0.5 0  -1.676646706591935 0.5 0  -1.646706586831552 0.5 0  -1.616766467071169 0.5 0  -1.586826347310786 0.5 0  -1.556886227550403 0.5 0  -1.526946107790019 0.5 0  -1.497005988029636 0.5 0  -1.467065868269253 0.5 0  -1.43712574850887 0.5 0  -1.407185628748487 0.5 0  -1.377245508988104 0.5 0  -1.347305389227721 0.5 0  -1.317365269467338 0.5 0  -1.287425149706955 0.5 0  -1.257485029946572 0.5 0  -1.227544910186189 0.5 0  -1.197604790425806 0.5 0  -1.167664670665423 0.5 0  -1.13772455090504 0.5 0  -1.107784431144657 0.5 0  -1.077844311384275 0.5 0  -1.047904191623892 0.5 0  -1.017964071863509 0.5 0  -0.988023952103064 0.5 0  -0.9580838323426146 0.5 0  -0.9281437125821448 0.5 0  -0.8982035928216288 0.5 0  -0.8682634730611127 0.5 0  -0.8383233533005967 0.5 0  -0.8083832335400807 0.5 0  -0.7784431137795647 0.5 0  -0.7485029940190486 0.5 0  -0.7185628742585335 0.5 0  -0.6886227544980175 0.5 0  -0.6586826347375014 0.5 0  -0.6287425149769854 0.5 0  -0.5988023952164694 0.5 0  -0.5688622754559534 0.5 0  -0.5389221556954373 0.5 0  -0.5089820359349222 0.5 0  -0.4790419161744062 0.5 0  -0.4491017964138901 0.5 0  -0.4191616766533741 0.5 0  -0.389221556892859 0.5 0  -0.359281437132343 0.5 0  -0.3293413173718269 0.5 0  -0.2994011976113109 0.5 0  -0.2694610778507949 0.5 0  -0.2395209580902788 0.5 0  -0.2095808383297628 0.5 0  -0.1796407185692477 0.5 0  -0.1497005988087317 0.5 0  -0.1197604790482156 0.5 0  -0.0898203592876996 0.5 0  -0.05988023952718358
[...]
<PointData  Scalars="f_8-1"> 
<DataArray  type="Float64"  Name="f_8-1"  format="ascii">9.4341008904351600e+02  6.9561886867412329e+02  6.6808206732533665e+02  6.6808206732533813e+02  9.7094687668348752e+02  9.7094687668349684e+02  6.9568499904689247e+02  6.9631261836574640e+02  6.9713793670830717e+02  6.9838063598547024e+02  7.0026888289327906e+02  7.0279505186602989e+02  7.0608874366703321e+02  7.1017029779626671e+02  7.1639459223474216e+02  7.2379471854406313e+02  7.3365106583992542e+02  7.4658247267382433e+02  7.6109198794595738e+02  7.7907386570356493e+02  7.9906126260057511e+02  8.1933581154793274e+02  8.4036671026366832e+02  8.5999671512474413e+02  8.7741058386033956e+02  8.9306546013269929e+02  9.0499736815496374e+02  9.1548349562182489e+02  9.2256497345245987e+02  9.2886496842471297e+02  9.3294064050379473e+02  9.3623348271641714e+02  9.3876025772065054e+02  9.4064831212597619e+02  9.4189103556370810e+02  9.4271634208056514e+02  9.4334395967612431e+02  9.4136170690676079e+02  9.3974154642274880e+02  9.3853141896237355e+02  9.3763871460811470e+02  9.3702099030276543e+02  9.3658086085968455e+02  9.3631733500750761e+02  9.3617188993162927e+02  9.3613285838139689e+02  9.3616145860134043e+02  9.3624542573592748e+02  9.3637544922591951e+02  9.3653759939117776e+02  9.3672667044980767e+02  9.3693008494088201e+02  9.3714785147185876e+02  9.3737504288057164e+02  9.3760833176639801e+02  9.3784721076906976e+02  9.3808738591794474e+02  9.3833010365791438e+02  9.3857374272108268e+02  9.3881781540732584e+02  9.3906182338232099e+02  9.3930583885228782e+02  9.3954955934022610e+02  9.3979271585972151e+02  9.4003556052078670e+02  9.4027797557972508e+02  9.4051997035169165e+02  9.4076158420308104e+02  9.4100285230570091e+02  9.4124386877420807e+02  9.4148459857710384e+02  9.4172510957541704e+02  9.4196543271541179e+02  9.4220559248439167e+02  9.4244562769717925e+02  9.4268554883823504e+02  9.4292538076748087e+02  9.4316514297024628e+02  9.4340484209241424e+02  9.4364449967948178e+02  9.4388411381831827e+02  9.4412370095909750e+02  9.4436326351063042e+02  9.4460280864076333e+02  9.4484233891091640e+02  9.4508185861175764e+02  9.4532137071892862e+02  9.4556087497872397e+02  9.4580037618447716e+02  9.4603987277765839e+02  9.4627936741573205e+02  9.4651886012956709e+02  9.4675835165276237e+02  9.4699784227579005e+02  9.4723733242032358e+02  9.4747682229197198e+02  9.4771631176381948e+02  9.4795580136596016e+02  9.4819529083233931e+02  9.4843478039376578e+02  9.4867427001294220e+02  9.4891375970658351e+02  9.4915324948652710e+02  9.4939273935856045e+02  9.4963222931181519e+02  9.4987171932429806e+02  9.5011120941692536e+02  9.5035069956370023e+02  9.5059018976343168e+02  9.5082968000834489e+02  9.5106917028867906e+02  9.5130866060167455e+02  9.5154815094102980e+02  9.5178764130101422e+02  9.5202713167956779e+02  9.5226662207145193e+02  9.5250611247627262e+02  9.5274560288974010e+02  9.5298509331099558e+02  9.5322458373783900e+02  9.5346407416953048e+02  9.5370356460473454e+02  9.5394305504253214e+02  9.5418254548290020e+02  9.5442203592446322e+02  9.5466152636758943e+02  9.5490101681147087e+02  9.5514050725607262e+02  9.5537999770114061e+02  9.5561948814657956e+02  9.5585897859223758e+02  9.5609846903804078e+02  9.5633795948401109e+02  9.5657744992998676e+02  9.5681694037603643e+02  9.5705643082208269e+02  9.5729592126813338e+02  9.5753541171417294e+02  9.5777490216020124e+02  9.5801439260620771e+02  9.5825388305220065e+02  9.5849337349817631e+02  9.5873286394413981e+02  9.5897235439008466e+02  9.5921184483601837e+02  9.5945133528193776e+02  9.5969082572784669e+02  9.5993031617374788e+02  9.6016980661963976e+02  9.6040929706553004e+02  9.6064878751140691e+02  9.6088827795728832e+02  9.6112776840316201e+02  9.6136725884903569e+02  9.6160674929490483e+02  9.6184623974077283e+02  9.6208573018663822e+02  9.6232522063250121e+02  9.6256471107836603e+02  9.6280420152422505e+02  9.6304369197009271e+02  9.6328318241595412e+02  9.6352267286181734e+02  9.6376216330767818e+02  9.6400165375353868e+02  9.6424114419940042e+02  9.6448063464526035e+02  9.6472012509112403e+02  9.6495961553698123e+02  9.6519910598284241e+02  9.6543859642870177e+02  9.6567808687456341e+02  9.6591757732042163e+02  9.6615706776627985e+02  9.6639655821214819e+02  9.6663604865800380e+02  9.6687553910386544e+02  9.6711502954972650e+02  9.6735451999558700e+02  9.6759401044144556e+02  9.6783350088730640e+02  9.6807299133316235e+02  9.6831248177902626e+02  9.6855197222488403e+02  9.6879146267074248e+02  9.6903095311661173e+02  9.6927044356246188e+02  9.6950993400833011e+02  9.6974942445419435e+02  9.6998891490005599e+02  9.7022840534591217e+02  9.7046789579177278e+02  9.7070738623763964e+02  9.7094687668349900e+02  9.7094687668349218e+02  9.7094687668349354e+02  9.7094687668348956e+02  9.7094687668348615e+02  9.7094687668349923e+02  9.7094687668349536e+02  9.7094687668349195e+02  9.7094687668349229e+02  9.7094687668349150e+02  9.7094687668349297e+02  9.7094687668349377e+02  9.7094687668349093e+02  9.7094687668349025e+02  9.7094687668348718e+02  9.7094687668350093e+02  9.7070735572541003e+02  9.7046783476732173e+02  9.7022831380924015e+02  9.6998879285116118e+02  9.6974927189307607e+02  9.6950975093498948e+02  9.6927022997690017e+02  9.6903070901882734e+02  9.6879118806073154e+02  9.6855166710264837e+02  9.6831214614456405e+02  9.6807262518647542e+02  9.6783310422839543e+02  9.6759358327031248e+02  9.6735406231222839e+02  9.6711454135414442e+02  9.6687502039605874e+02  9.6663549943797034e+02  9.6639597847989035e+02  9.6615645752179887e+02  9.6591693656371683e+02  9.6567741560563491e+02  9.6543789464755025e+02  9.6519837368946560e+02  9.6495885273137844e+02  9.6471933177330027e+02  9.6447981081521277e+02  9.6424028985712698e+02  9.6400076889904358e+02  9.6376124794095801e+02  9.6352172698287677e+02  9.6328220602478962e+02  9.6304268506670519e+02  9.6280316410861701e+02  9.6256364315054134e+02  9.6232412219245703e+02  9.6208460123437533e+02  9.6184508027629749e+02  9.6160555931822080e+02  9.6136603836015126e+02  9.6112651740207957e+02  9.6088699644401618e+02  9.6064747548595687e+02  9.6040795452791622e+02  9.6016843356988034e+02  9.5992891261185878e+02  9.5968939165385734e+02  9.5944987069587762e+02  9.5921034973792803e+02  9.5897082878001083e+02  9.5873130782213093e+02  9.5849178686430275e+02  9.5825226590654563e+02  9.5801274494884774e+02  9.5777322399124103e+02  9.5753370303373049e+02  9.5729418207632420e+02  9.5705466111904741e+02  9.5681514016193580e+02  9.5657561920494879e+02  9.5633609824806501e+02  9.5609657729147364e+02  9.5585705633484747e+02  9.5561753537848847e+02  9.5537801442212799e+02  9.5513849346560971e+02  9.5489897250899753e+02  9.5465945155210943e+02  9.5441993059458082e+02  9.5418040963502801e+02  9.5394088867527785e+02  9.5370136771131786e+02  9.5346184674513586e+02  9.5322232577361194e+02  9.5298280479434743e+02  9.5274328380684472e+02  9.5250376280661783e+02  9.5226424179232299e+02  9.5202472074947582e+02  9.5178519968848138e+02  9.5154567858229541e+02  9.5130615743643227e+02  9.5106663623154782e+02  9.5082711494988143e+02  9.5058759358241832e+02  9.5034807208947768e+02  9.5010855047725988e+02  9.4986902866376442e+02  9.4962950666095207e+02  9.4938998439669137e+02  9.4915046181921684e+02  9.4891093889198430e+02  9.4867141555450451e+02  9.4843189173426640e+02  9.4819236724986524e+02  9.4795284222726661e+02  9.4771331666291883e+02  9.4747379008018117e+02  9.4723426264174680e+02  9.4699473480107235e+02  9.4675520599372408e+02  9.4651567709176493e+02  9.4627614771026947e+02  9.4603661812782480e+02  9.4579708951003863e+02  9.4555756551859747e+02  9.4531804292505933e+02  9.4507852487907655e+02  9.4483901842964519e+02  9.4459952265556831e+02  9.4436004904034917e+02  9.4412059752787206e+02  9.4388118155491600e+02  9.4364180677512627e+02  9.4340251452282610e+02  9.4316329497347135e+02  9.4292417496822213e+02  9.4268520589232901e+02  9.4244641022792791e+02  9.4220786505001206e+02  9.4196959223470697e+02  9.4173172426847543e+02  9.4149425735900581e+02  9.4125743993594949e+02  9.4102135185650047e+02  9.4078610002632286e+02  9.4055186663251811e+02  9.4031894634127650e+02  9.4008753684493036e+02  9.3985788503386038e+02  9.3963069724749539e+02  9.3940557601545902e+02  9.3918294510401381e+02  9.3896425593834522e+02  9.3874917679817247e+02  9.3853669828757722e+02  9.3832899438992649e+02  9.3812260954829048e+02  9.3792344310132535e+02  9.3772531465611166e+02  9.3752794167836009e+02  9.3732583178745676e+02  9.3712320665964774e+02  9.3691030161792344e+02  9.3667148075248076e+02  9.3641267243458481e+02  9.3610081344140588e+02  9.3574266985613974e+02  9.3528071083291502e+02  9.3470646170910561e+02  9.3400675746754712e+02  9.3296164966658739e+02  9.3175570882761679e+02  9.3013563634171476e+02  9.2803756084555710e+02  9.2535979018228727e+02  9.2192122988629842e+02  9.1755806360190400e+02  9.1214086625546781e+02  9.0555965544440926e+02  8.9741533682619399e+02  8.8786111335003511e+02  8.7662569185720520e+02  8.6396386550754926e+02  8.5005095422719592e+02  8.3500234234040454e+02  8.1952016431223990e+02  8.0401271403306703e+02  7.8909576454316812e+02  7.7500472513318005e+02  7.6234591302874844e+02  7.5129550788769188e+02  7.4148931532659458e+02  7.3349071941043235e+02  7.2687627606387866e+02  7.2147685103181618e+02  7.1710654186764907e+02  7.1366957284303953e+02  7.1099139688968728e+02  7.0889335379047532e+02  7.0727325875497297e+02  7.0606730909194096e+02  7.0502219334941731e+02  7.0432248533825566e+02  7.0374823362376458e+02  7.0328627321563590e+02  7.0292812901675552e+02  7.0261626972792851e+02  7.0235746141823768e+02  7.0211864063255302e+02  7.0190573577169164e+02  7.0170311084377693e+02  7.0150100113182725e+02  7.0130362833449271e+02  7.0110550005230868e+02  7.0090633375426512e+02  7.0069994902923042e+02  7.0049224523797636e+02  7.0027976681479834e+02  7.0006468775064400e+02  6.9984599864810059e+02  6.9962336778691974e+02  6.9939824659645797e+02  6.9917105884512148e+02  6.9894140706159669e+02  6.9870999758762298e+02  6.9847707731426976e+02  6.9824284393465723e+02  6.9800759211575144e+02  6.9777150404527379e+02  6.9753468662924581e+02  6.9729721972501977e+02  6.9705935176296498e+02  6.9682107895077422e+02  6.9658253377527126e+02  6.9634373811263220e+02  6.9610476903806841e+02  6.9586564903375722e+02  6.9562642948508824e+02  6.9538713723330716e+02  6.9514776245383337e+02  6.9490834648109524e+02  6.9466889496875012e+02  6.9442942135361375e+02  6.9418992557957085e+02  6.9395041913015564e+02  6.9371090108415876e+02  6.9347137849059175e+02  6.9323185449912762e+02  6.9299232588131042e+02  6.9275279629883778e+02  6.9251326691730810e+02  6.9227373801532144e+02  6.9203420920794849e+02  6.9179468136725529e+02  6.9155515392880159e+02  6.9131562734604051e+02  6.9107610178167874e+02  6.9083657675906943e+02  6.9059705227466213e+02  6.9035752845441107e+02  6.9011800511692286e+02  6.8987848218968441e+02  6.8963895961220646e+02  6.8939943734794383e+02  6.8915991534511693e+02  6.8892039353162522e+02  6.8868087191940526e+02  6.8844135042646701e+02  6.8820182905899662e+02  6.8796230777732899e+02  6.8772278657244146e+02  6.8748326542657981e+02  6.8724374432039394e+02  6.8700422325938860e+02  6.8676470221654756e+02  6.8652518120225147e+02  6.8628566020202902e+02  6.8604613921452085e+02  6.8580661823525531e+02  6.8556709726372935e+02  6.8532757629754849e+02  6.8508805533358918e+02  6.8484853437382765e+02  6.8460901341428087e+02  6.8436949245675157e+02  6.8412997149986734e+02  6.8389045054325038e+02  6.8365092958673017e+02  6.8341140863036856e+02  6.8317188767401024e+02  6.8293236671738623e+02  6.8269284576078178e+02  6.8245332480390539e+02  6.8221380384691770e+02  6.8197428288980950e+02  6.8173476193252736e+02  6.8149524097511869e+02  6.8125572001760747e+02  6.8101619906000155e+02  6.8077667810230469e+02  6.8053715714453585e+02  6.8029763618671473e+02  6.8005811522883414e+02  6.7981859427092013e+02  6.7957907331296531e+02  6.7933955235498399e+02  6.7910003139698119e+02  6.7886051043896077e+02  6.7862098948092580e+02  6.7838146852287412e+02  6.7814194756482198e+02  6.7790242660675801e+02  6.7766290564869087e+02  6.7742338469061644e+02  6.7718386373253918e+02  6.7694434277446101e+02  6.7670482181638147e+02  6.7646530085830045e+02  6.7622577990021375e+02  6.7598625894213319e+02  6.7574673798404899e+02  6.7550721702596627e+02  6.7526769606788025e+02  6.7502817510979480e+02  6.7478865415171072e+02  6.7454913319362618e+02  6.7430961223554129e+02  6.7407009127745403e+02  6.7383057031936983e+02  6.7359104936128563e+02  6.7335152840320075e+02  6.7311200744511530e+02  6.7287248648702678e+02  6.7263296552894758e+02  6.7239344457086077e+02  6.7215392361277725e+02  6.7191440265469294e+02  6.7167488169660953e+02  6.7143536073852295e+02  6.7119583978043920e+02  6.7095631882235080e+02  6.7071679786426841e+02  6.7047727690618422e+02  6.7023775594809854e+02  6.6999823499002298e+02  6.6975871403193048e+02  6.6951919307384833e+02  6.6927967211576606e+02  6.6904015115768232e+02  6.6880063019959402e+02  6.6856110924150869e+02  6.6832158828343120e+02  6.6808206732534381e+02  6.6808206732533790e+02  6.6808206732533858e+02  6.6808206732533984e+02  6.6808206732534154e+02  6.6808206732533972e+02  6.6808206732533938e+02  6.6808206732533813e+02  6.6808206732533938e+02  6.6808206732534040e+02  6.6808206732534165e+02  6.6808206732533392e+02  6.6808206732533608e+02  6.6808206732533677e+02  6.6808206732533711e+02  6.6808206732534484e+02  6.6832155777119976e+02  6.6856104821705776e+02  6.6880053866291826e+02  6.6904002910878114e+02  6.6927951955464039e+02  6.6951901000049804e+02  6.6975850044635263e+02  6.6999799089221995e+02  6.7023748133807385e+02  6.7047697178393503e+02  6.7071646222979746e+02  6.7095595267565443e+02  6.7119544312151857e+02  6.7143493356737804e+02  6.7167442401323910e+02  6.7191391445909971e+02  6.7215340490495873e+02  6.7239289535081889e+02  6.7263238579668200e+02  6.7287187624253636e+02  6.7311136668839754e+02  6.7335085713425917e+02  6.7359034758011899e+02  6.7382983802597880e+02  6.7406932847183657e+02  6.7430881891769843e+02  6.7454830936355768e+02  6.7478779980941886e+02  6.7502729025527867e+02  6.7526678070113871e+02  6.7550627114699796e+02  6.7574576159285743e+02  6.7598525203871930e+02  6.7622474248457638e+02  6.7646423293044256e+02  6.7670372337630386e+02  6.7694321382216822e+02  6.7718270426803224e+02  6.7742219471389876e+02  6.7766168515976517e+02  6.7790117560563499e+02  6.7814066605150811e+02  6.7838015649738134e+02  6.7861964694326571e+02  6.7885913738915110e+02  6.7909862783504377e+02  6.7933811828094269e+02  6.7957760872685196e+02  6.7981709917276964e+02  6.8005658961869995e+02  6.8029608006464514e+02  6.8053557051059795e+02  6.8077506095657964e+02  6.8101455140256860e+02  6.8125404184857734e+02  6.8149353229460371e+02  6.8173302274064383e+02  6.8197251318669055e+02  6.8221200363273294e+02  6.8245149407878262e+02  6.8269098452475055e+02  6.8293047497072780e+02  6.8316996541652668e+02  6.8340945586218527e+02  6.8364894630762092e+02  6.8388843675268788e+02  6.8412792719728907e+02  6.8436741764116698e+02  6.8460690808429297e+02  6.8484639852584667e+02  6.8508588896622155e+02  6.8532537940401551e+02  6.8556486983922161e+02  6.8580436027090968e+02  6.8604385069775276e+02  6.8628334111900426e+02  6.8652283153246958e+02  6.8676232193728958e+02  6.8700181232916600e+02  6.8724130270772889e+02  6.8748079306771160e+02  6.8772028340707141e+02  6.8795977372006803e+02  6.8819926400040299e+02  6.8843875424531575e+02  6.8867824444504515e+02  6.8891773459182127e+02  6.8915722468444267e+02  6.8939671469693360e+02  6.8963620465018369e+02  6.8987569452221965e+02  6.9011518430216188e+02  6.9035467399580307e+02  6.9059416361497813e+02  6.9083365317640198e+02  6.9107314264277977e+02  6.9131263224491067e+02  6.9155212171676476e+02  6.9179161158840736e+02  6.9203110173294385e+02  6.9227059235597108e+02  6.9251008387916772e+02  6.9274957659300571e+02  6.9298907123108518e+02  6.9322856782428062e+02  6.9346806903005029e+02  6.9370757328988498e+02  6.9394708539710211e+02  6.9418660509801578e+02  6.9442613536826332e+02  6.9466568049852913e+02  6.9490524305023712e+02  6.9514483019125282e+02  6.9538444433039660e+02  6.9562410191787683e+02  6.9586380104058003e+02  6.9610356324403961e+02  6.9634339517417152e+02  6.9658331631634678e+02  6.9682335153056249e+02  6.9706351130130884e+02  6.9730383444351833e+02  6.9754434544456205e+02  6.9778507525081056e+02  6.9802609172346411e+02  6.9826735983098058e+02  6.9850897368825656e+02  6.9875096846722772e+02  6.9899338353443125e+02  6.9923622820506330e+02  6.9947938473525596e+02  6.9972310523558929e+02  6.9996712071917796e+02  7.0021112870838942e+02  7.0045520140957751e+02  7.0069884048748520e+02  7.0094155824092411e+02  7.0118173339926852e+02  7.0142061240906526e+02  7.0165390129262983e+02  7.0188109268911421e+02  7.0209885919223211e+02  7.0230227363974370e+02  7.0249134463241012e+02  7.0265349470811805e+02  7.0278351808903358e+02  7.0286748510068662e+02  7.0289608521483729e+02  7.0285705358407688e+02  7.0271160857354710e+02  7.0244808297785028e+02  7.0200795423129580e+02  7.0139023109144284e+02  7.0049752874176374e+02  6.9928740416882715e+02  6.9766724730148110e+02  9.6893152301745772e+02  6.7009742099134030e+02  9.3268419631839890e+02  7.0634474947205069e+02  6.7227315012787903e+02  9.6675579388091933e+02  6.7442335713274838e+02  9.6460558687605328e+02  6.7657877719401245e+02  9.6245016681477978e+02  6.7873419726009683e+02  9.6029474674868163e+02  6.8088961733116025e+02  9.5813932667760525e+02  6.8304503741045301e+02  9.5598390659830022e+02  9.5382848648391860e+02  6.8520045752482133e+02  9.5167306622199931e+02  6.8735587778673369e+02  9.4951764609310931e+02  6.8951129791563449e+02  9.4736223559624932e+02  6.9166670841248379e+02  9.4519667028606455e+02  6.9383227372238207e+02  9.4304196360026856e+02  6.9598698040620673e+02  9.4088797805546824e+02  6.9814096594571652e+02  9.3872212914730289e+02  7.0030681491215171e+02  7.0250219004177666e+02  9.3652675468023563e+02  9.2342564405365920e+02  7.1560334262505376e+02  6.7115551144444828e+02  9.6787343256435111e+02  9.6785637996990954e+02  6.7117256403888871e+02  6.7333552445487442e+02  9.6569341955392917e+02  6.7550626846151590e+02  9.6352267554728189e+02  9.3981738207475394e+02  6.9921156188370412e+02  6.7766168248048280e+02  9.6136726152830181e+02  9.4196039631540043e+02  6.9706854768224548e+02  9.5921184750919520e+02  6.7981709649957440e+02  9.4411219755212744e+02  6.9491674645536330e+02  9.5705643348903209e+02  6.8197251051972501e+02  9.4627938388645532e+02  6.9274956012225073e+02  9.5490101946425750e+02  6.8412792454448606e+02  9.4843476823579715e+02  6.9059417577295619e+02  9.5274560544862140e+02  6.8628333856011091e+02  9.5059018492481573e+02  6.8843875908391840e+02  9.5059019179620384e+02  6.8843875221252870e+02  9.5274559997576159e+02  6.8628334403296810e+02  9.4843478164661360e+02  6.9059416236211916e+02  9.4627938963827989e+02  6.9274955437040092e+02  9.5490101413861180e+02  6.8412792987012870e+02  9.4412399959398886e+02  6.9490494441457940e+02  9.5705642815724946e+02  6.8197251585150480e+02  9.4196759276678711e+02  6.9706135124404113e+02  9.5921184216341510e+02  6.7981710184535257e+02  9.3980052792077117e+02  6.9922841612302636e+02  9.6136725616968863e+02  6.7766168783909325e+02  9.6352267017620136e+02  6.7550627383259325e+02  6.7333791230485542e+02  9.6569103170394374e+02  7.0412627125924121e+02  9.3490267606858083e+02  7.0130430431284503e+02  9.3772463975551989e+02  7.0130515995749352e+02  9.3772378426980833e+02  7.0344031625097057e+02  9.3558862787296880e+02  9.6977493046784298e+02  6.6925401354096743e+02  9.6977302741646963e+02  6.6925591659234806e+02  9.3525381018329085e+02  7.0377512695483131e+02  9.0331884379883047e+02  7.3571022304299265e+02  9.3027936885052986e+02  7.0874959568238080e+02  6.7214711920215439e+02  9.6688182480664636e+02  6.7209391595908050e+02  9.6693502804972513e+02  6.7442856414062146e+02  9.646003798681841