<?xml version="1.0"?>
<VTKFile type="UnstructuredGrid"  version="0.1"  >
<UnstructuredGrid>
<Piece  NumberOfPoints="7353" NumberOfCells="13990">
<Points>
<DataArray  type="Float64"  NumberOfComponents="3"  format="ascii">-0.3 0 0  0.3 0 0  5 0 0  5 0.5 0  -5 0.5 0  -5 0 0  0.2985554179952057 0.02940514216439048 0  0.2942355840977032 0.05852709672180423 0  0.2870821006639274 0.08708540336007313 0  0.2771638596462532 0.1148050299681684 0  0.2645763791322086 0.1414190213701461 0  0.2494408834296523 0.1666710702966614 0  0.2319031356521943 0.1903179856836446 0  0.212132033889947 0.2121320348219815 0  0.1903179846599683 0.2319031364923038 0  0.1666710691977976 0.2494408841638895 0  0.1414190202036793 0.264576379755698 0  0.1148050287504613 0.277163860150644 0  0.08708540209850373 0.2870821010466204 0  0.0585270954160826 0.2942355843574274 0  0.02940514080542908 0.2985554181290517 0  -1.379915696657678e-09 0.3 0  -0.0294051433958062 0.2985554178739218 0  -0.05852709779174745 0.2942355838848782 0  -0.08708540425685798 0.2870821003918907 0  -0.1148050306733768 0.2771638593541463 0  -0.141419021916266 0.2645763788403014 0  -0.1666710706662956 0.2494408831826705 0  -0.1903179858833668 0.2319031354882865 0  -0.2121320348654665 0.2121320338464621 0  -0.2319031364165032 0.1903179847523315 0  -0.2494408839900467 0.1666710694579718 0  -0.2645763795095463 0.1414190206641968 0  -0.2771638598924455 0.1148050293738077 0  -0.2870821008007191 0.08708540290913139 0  -0.2942355841569868 0.05852709642376556 0  -0.2985554180094689 0.02940514201957286 0  -0.3299363057324299 0 0  -0.3598726114648668 0 0  -0.3898089171973007 0 0  -0.4197452229297279 0 0  -0.4496815286621489 0 0  -0.4796178343945701 0 0  -0.5095541401270065 0 0  -0.5394904458594454 0 0  -0.5694267515918842 0 0  -0.5993630573243229 0 0  -0.6292993630567618 0 0  -0.6592356687892005 0 0  -0.6891719745216525 0 0  -0.7191082802540999 0 0  -0.7490445859865436 0 0  -0.7789808917190001 0 0  -0.8089171974514566 0 0  -0.8388535031839131 0 0  -0.8687898089163695 0 0  -0.8987261146488128 0 0  -0.9286624203812288 0 0  -0.9585987261136146 0 0  -0.9885350318460002 0 0  -1.018471337578386 0 0  -1.048407643310772 0 0  -1.078343949043166 0 0  -1.108280254775587 0 0  -1.138216560507973 0 0  -1.168152866240358 0 0  -1.198089171972744 0 0  -1.22802547770513 0 0  -1.25796178343752 0 0  -1.287898089169941 0 0  -1.317834394902362 0 0  -1.347770700634783 0 0  -1.377707006367204 0 0  -1.407643312099626 0 0  -1.437579617832047 0 0  -1.467515923564433 0 0  -1.497452229296819 0 0  -1.527388535029223 0 0  -1.557324840761644 0 0  -1.587261146494065 0 0  -1.617197452226487 0 0  -1.647133757958878 0 0  -1.677070063691263 0 0  -1.707006369423663 0 0  -1.736942675156084 0 0  -1.766878980888506 0 0  -1.796815286620927 0 0  -1.826751592353323 0 0  -1.856687898085708 0 0  -1.886624203818094 0 0  -1.91656050955048 0 0  -1.946496815282866 0 0  -1.97643312101528 0 0  -2.00636942674768 0 0  -2.036305732480078 0 0  -2.0662420382125 0 0  -2.096178343944921 0 0  -2.126114649677278 0 0  -2.156050955409629 0 0  -2.185987261141979 0 0  -2.215923566874345 0 0  -2.245859872606766 0 0  -2.275796178339187 0 0  -2.305732484071608 0 0  -2.335668789804029 0 0  -2.365605095536428 0 0  -2.395541401268779 0 0  -2.425477707001129 0 0  -2.45541401273354 0 0  -2.485350318465961 0 0  -2.515286624198353 0 0  -2.545222929930703 0 0  -2.575159235663054 0 0  -2.605095541395405 0 0  -2.635031847127806 0 0  -2.664968152860263 0 0  -2.694904458592774 0 0  -2.72484076432534 0 0  -2.754777070057973 0 0  -2.784713375790548 0 0  -2.814649681523069 0 0  -2.84458598725556 0 0  -2.874522292988062 0 0  -2.904458598720625 0 0  -2.934394904453253 0 0  -2.964331210185837 0 0  -2.994267515918367 0 0  -3.024203821650876 0 0  -3.054140127383438 0 0  -3.084076433116071 0 0  -3.114012738848705 0 0  -3.143949044581299 0 0  -3.173885350313838 0 0  -3.203821656046337 0 0  -3.2337579617789 0 0  -3.263694267511524 0 0  -3.293630573244158 0 0  -3.323566878976762 0 0  -3.35350318470931 0 0  -3.383439490441801 0 0  -3.413375796174362 0 0  -3.443312101906977 0 0  -3.47324840763961 0 0  -3.503184713372223 0 0  -3.533121019104781 0 0  -3.563057324837273 0 0  -3.592993630569824 0 0  -3.62292993630243 0 0  -3.652866242035063 0 0  -3.682802547767686 0 0  -3.712738853500248 0 0  -3.742675159232745 0 0  -3.772611464965286 0 0  -3.802547770697883 0 0  -3.832484076430516 0 0  -3.862420382163148 0 0  -3.89235668789571 0 0  -3.922292993628216 0 0  -3.952229299360749 0 0  -3.98216560509336 0 0  -4.012101910826055 0 0  -4.042038216558689 0 0  -4.071974522291196 0 0  -4.101910828023688 0 0  -4.13184713375618 0 0  -4.161783439488701 0 0  -4.191719745221334 0 0  -4.221656050953968 0 0  -4.251592356686494 0 0  -4.281528662418985 0 0  -4.311464968151477 0 0  -4.341401273883968 0 0  -4.371337579616459 0 0  -4.401273885348951 0 0  -4.431210191081531 0 0  -4.461146496814164 0 0  -4.491082802546774 0 0  -4.521019108279265 0 0  -4.550955414011757 0 0  -4.580891719744248 0 0  -4.61082802547681 0 0  -4.640764331209444 0 0  -4.670700636942071 0 0  -4.700636942674563 0 0  -4.730573248407055 0 0  -4.760509554139546 0 0  -4.790445859872087 0 0  -4.820382165604722 0 0  -4.850318471337355 0 0  -4.880254777069859 0 0  -4.910191082802352 0 0  -4.940127388534843 0 0  -4.970063694267366 0 0  -5 0.0294117647058227 0  -5 0.05882352941165839 0  -5 0.08823529411746014 0  -5 0.1176470588232567 0  -5 0.1470588235290533 0  -5 0.1764705882348499 0  -5 0.2058823529406464 0  -5 0.235294117646443 0  -5 0.2647058823523212 0  -5 0.2941176470582811 0  -5 0.323529411764241 0  -5 0.352941176470201 0  -5 0.3823529411761608 0  -5 0.4117647058821207 0  -5 0.4411764705880806 0  -5 0.4705882352940405 0  -4.970059880239484 0.5 0  -4.940119760478968 0.5 0  -4.910179640718452 0.5 0  -4.880239520957936 0.5 0  -4.85029940119742 0.5 0  -4.820359281436904 0.5 0  -4.790419161676389 0.5 0  -4.760479041915873 0.5 0  -4.730538922155357 0.5 0  -4.700598802394841 0.5 0  -4.670658682634325 0.5 0  -4.640718562873809 0.5 0  -4.610778443113293 0.5 0  -4.580838323352777 0.5 0  -4.55089820359226 0.5 0  -4.520958083831744 0.5 0  -4.491017964071229 0.5 0  -4.461077844310713 0.5 0  -4.431137724550197 0.5 0  -4.401197604789681 0.5 0  -4.371257485029165 0.5 0  -4.341317365268649 0.5 0  -4.311377245508133 0.5 0  -4.281437125747617 0.5 0  -4.251497005987101 0.5 0  -4.221556886226585 0.5 0  -4.191616766466069 0.5 0  -4.161676646705553 0.5 0  -4.131736526945037 0.5 0  -4.101796407184521 0.5 0  -4.071856287424006 0.5 0  -4.04191616766349 0.5 0  -4.011976047902974 0.5 0  -3.982035928142458 0.5 0  -3.952095808381942 0.5 0  -3.922155688621426 0.5 0  -3.89221556886091 0.5 0  -3.862275449100394 0.5 0  -3.832335329339878 0.5 0  -3.80239520957939 0.5 0  -3.772455089818908 0.5 0  -3.742514970058441 0.5 0  -3.712574850298025 0.5 0  -3.682634730537609 0.5 0  -3.652694610777214 0.5 0  -3.622754491016831 0.5 0  -3.592814371256448 0.5 0  -3.562874251496066 0.5 0  -3.532934131735682 0.5 0  -3.5029940119753 0.5 0  -3.473053892214916 0.5 0  -3.443113772454534 0.5 0  -3.413173652694151 0.5 0  -3.383233532933768 0.5 0  -3.353293413173385 0.5 0  -3.323353293413002 0.5 0  -3.293413173652619 0.5 0  -3.263473053892236 0.5 0  -3.233532934131853 0.5 0  -3.20359281437147 0.5 0  -3.173652694611087 0.5 0  -3.143712574850704 0.5 0  -3.113772455090321 0.5 0  -3.083832335329938 0.5 0  -3.053892215569555 0.5 0  -3.023952095809172 0.5 0  -2.994011976048789 0.5 0  -2.964071856288406 0.5 0  -2.934131736528023 0.5 0  -2.90419161676764 0.5 0  -2.874251497007257 0.5 0  -2.844311377246874 0.5 0  -2.81437125748649 0.5 0  -2.784431137726108 0.5 0  -2.754491017965725 0.5 0  -2.724550898205341 0.5 0  -2.694610778444958 0.5 0  -2.664670658684575 0.5 0  -2.634730538924192 0.5 0  -2.604790419163809 0.5 0  -2.574850299403426 0.5 0  -2.544910179643043 0.5 0  -2.51497005988266 0.5 0  -2.485029940122277 0.5 0  -2.455089820361894 0.5 0  -2.425149700601511 0.5 0  -2.395209580841128 0.5 0  -2.365269461080745 0.5 0  -2.335329341320362 0.5 0  -2.305389221559979 0.5 0  -2.275449101799595 0.5 0  -2.245508982039213 0.5 0  -2.215568862278829 0.5 0  -2.185628742518446 0.5 0  -2.155688622758063 0.5 0  -2.12574850299768 0.5 0  -2.095808383237297 0.5 0  -2.065868263476914 0.5 0  -2.035928143716531 0.5 0  -2.005988023956148 0.5 0  -1.976047904195765 0.5 0  -1.946107784435382 0.5 0  -1.916167664674999 0.5 0  -1.886227544914616 0.5 0  -1.856287425154233 0.5 0  -1.826347305393849 0.5 0  -1.796407185633467 0.5 0  -1.766467065873084 0.5 0  -1.736526946112701 0.5 0  -1.706586826352318 0.5 0  -1.676646706591935 0.5 0  -1.646706586831552 0.5 0  -1.616766467071169 0.5 0  -1.586826347310786 0.5 0  -1.556886227550403 0.5 0  -1.526946107790019 0.5 0  -1.497005988029636 0.5 0  -1.467065868269253 0.5 0  -1.43712574850887 0.5 0  -1.407185628748487 0.5 0  -1.377245508988104 0.5 0  -1.347305389227721 0.5 0  -1.317365269467338 0.5 0  -1.287425149706955 0.5 0  -1.257485029946572 0.5 0  -1.227544910186189 0.5 0  -1.197604790425806 0.5 0  -1.167664670665423 0.5 0  -1.13772455090504 0.5 0  -1.107784431144657 0.5 0  -1.077844311384275 0.5 0  -1.047904191623892 0.5 0  -1.017964071863509 0.5 0  -0.988023952103064 0.5 0  -0.9580838323426146 0.5 0  -0.9281437125821448 0.5 0  -0.8982035928216288 0.5 0  -0.8682634730611127 0.5 0  -0.8383233533005967 0.5 0  -0.8083832335400807 0.5 0  -0.7784431137795647 0.5 0  -0.7485029940190486 0.5 0  -0.7185628742585335 0.5 0  -0.6886227544980175 0.5 0  -0.6586826347375014 0.5 0  -0.6287425149769854 0.5 0  -0.5988023952164694 0.5 0  -0.5688622754559534 0.5 0  -0.5389221556954373 0.5 0  -0.5089820359349222 0.5 0  -0.4790419161744062 0.5 0  -0.4491017964138901 0.5 0  -0.4191616766533741 0.5 0  -0.389221556892859 0.5 0  -0.359281437132343 0.5 0  -0.3293413173718269 0.5 0  -0.2994011976113109 0.5 0  -0.2694610778507949 0.5 0  -0.2395209580902788 0.5 0  -0.2095808383297628 0.5 0  -0.1796407185692477 0.5 0  -0.1497005988087317 0.5 0  -0.1197604790482156 0.5 0  -0.0898203592876996 0.5 0  -0.05988023952718358
[...]
<PointData  Vectors="f_8-0"> 
<DataArray  type="Float64"  Name="f_8-0"  NumberOfComponents="3" format="ascii">0.0000000000000000e+00 0.0000000000000000e+00 0.0000000000000000e+00  0.0000000000000000e+00 0.0000000000000000e+00 0.0000000000000000e+00  1.0000000000000000e+00 0.0000000000000000e+00 0.0000000000000000e+00  0.0000000000000000e+00 0.0000000000000000e+00 0.0000000000000000e+00  0.0000000000000000e+00 0.0000000000000000e+00 0.0000000000000000e+00  1.0000000000000000e+00 0.0000000000000000e+00 0.0000000000000000e+00  0.0000000000000000e+00 0.0000000000000000e+00 0.0000000000000000e+00  0.0000000000000000e+00 0.0000000000000000e+00 0.0000000000000000e+00  0.0000000000000000e+00 0.0000000000000000e+00 0.0000000000000000e+00  0.0000000000000000e+00 0.0000000000000000e+00 0.0000000000000000e+00  0.0000000000000000e+00 0.0000000000000000e+00 0.0000000000000000e+00  0.0000000000000000e+00 0.0000000000000000e+00 0.0000000000000000e+00  0.0000000000000000e+00 0.0000000000000000e+00 0.0000000000000000e+00  0.0000000000000000e+00 0.0000000000000000e+00 0.0000000000000000e+00  0.0000000000000000e+00 0.0000000000000000e+00 0.0000000000000000e+00  0.0000000000000000e+00 0.0000000000000000e+00 0.0000000000000000e+00  0.0000000000000000e+00 0.0000000000000000e+00 0.0000000000000000e+00  0.0000000000000000e+00 0.0000000000000000e+00 0.0000000000000000e+00  0.0000000000000000e+00 0.0000000000000000e+00 0.0000000000000000e+00  0.0000000000000000e+00 0.0000000000000000e+00 0.0000000000000000e+00  0.0000000000000000e+00 0.0000000000000000e+00 0.0000000000000000e+00  0.0000000000000000e+00 0.0000000000000000e+00 0.0000000000000000e+00  0.0000000000000000e+00 0.0000000000000000e+00 0.0000000000000000e+00  0.0000000000000000e+00 0.0000000000000000e+00 0.0000000000000000e+00  0.0000000000000000e+00 0.0000000000000000e+00 0.0000000000000000e+00  0.0000000000000000e+00 0.0000000000000000e+00 0.0000000000000000e+00  0.0000000000000000e+00 0.0000000000000000e+00 0.0000000000000000e+00  0.0000000000000000e+00 0.0000000000000000e+00 0.0000000000000000e+00  0.0000000000000000e+00 0.0000000000000000e+00 0.0000000000000000e+00  0.0000000000000000e+00 0.0000000000000000e+00 0.0000000000000000e+00  0.0000000000000000e+00 0.0000000000000000e+00 0.0000000000000000e+00  0.0000000000000000e+00 0.0000000000000000e+00 0.0000000000000000e+00  0.0000000000000000e+00 0.0000000000000000e+00 0.0000000000000000e+00  0.0000000000000000e+00 0.0000000000000000e+00 0.0000000000000000e+00  0.0000000000000000e+00 0.0000000000000000e+00 0.0000000000000000e+00  0.0000000000000000e+00 0.0000000000000000e+00 0.0000000000000000e+00  0.0000000000000000e+00 0.0000000000000000e+00 0.0000000000000000e+00  3.0041021316944999e-02 0.0000000000000000e+00 0.0000000000000000e+00  1.0065411989963421e-01 0.0000000000000000e+00 0.0000000000000000e+00  1.9094842700782882e-01 0.0000000000000000e+00 0.0000000000000000e+00  2.8819227657765084e-01 0.0000000000000000e+00 0.0000000000000000e+00  3.8436897730913677e-01 0.0000000000000000e+00 0.0000000000000000e+00  4.7488580286259485e-01 0.0000000000000000e+00 0.0000000000000000e+00  5.5725245879772956e-01 0.0000000000000000e+00 0.0000000000000000e+00  6.3042838641783117e-01 0.0000000000000000e+00 0.0000000000000000e+00  6.9426044547568810e-01 0.0000000000000000e+00 0.0000000000000000e+00  7.4917839677586751e-01 0.0000000000000000e+00 0.0000000000000000e+00  7.9572733824700848e-01 0.0000000000000000e+00 0.0000000000000000e+00  8.3487643343287066e-01 0.0000000000000000e+00 0.0000000000000000e+00  8.6741745090503253e-01 0.0000000000000000e+00 0.0000000000000000e+00  8.9430789213821904e-01 0.0000000000000000e+00 0.0000000000000000e+00  9.1632956342789618e-01 0.0000000000000000e+00 0.0000000000000000e+00  9.3420283298022011e-01 0.0000000000000000e+00 0.0000000000000000e+00  9.4864577681205919e-01 0.0000000000000000e+00 0.0000000000000000e+00  9.6020655607401084e-01 0.0000000000000000e+00 0.0000000000000000e+00  9.6942329860579401e-01 0.0000000000000000e+00 0.0000000000000000e+00  9.7670742055894133e-01 0.0000000000000000e+00 0.0000000000000000e+00  9.8241904876003283e-01 0.0000000000000000e+00 0.0000000000000000e+00  9.8687566088613310e-01 0.0000000000000000e+00 0.0000000000000000e+00  9.9032381098715905e-01 0.0000000000000000e+00 0.0000000000000000e+00  9.9296540294917746e-01 0.0000000000000000e+00 0.0000000000000000e+00  9.9497587942842625e-01 0.0000000000000000e+00 0.0000000000000000e+00  9.9648933470464118e-01 0.0000000000000000e+00 0.0000000000000000e+00  9.9761709975451052e-01 0.0000000000000000e+00 0.0000000000000000e+00  9.9844612306686709e-01 0.0000000000000000e+00 0.0000000000000000e+00  9.9904560631255468e-01 0.0000000000000000e+00 0.0000000000000000e+00  9.9947299597043660e-01 0.0000000000000000e+00 0.0000000000000000e+00  9.9976944816591506e-01 0.0000000000000000e+00 0.0000000000000000e+00  9.9996957694762811e-01 0.0000000000000000e+00 0.0000000000000000e+00  1.0000986980886113e+00 0.0000000000000000e+00 0.0000000000000000e+00  1.0001763208728385e+00 0.0000000000000000e+00 0.0000000000000000e+00  1.0002179848201693e+00 0.0000000000000000e+00 0.0000000000000000e+00  1.0002345292553780e+00 0.0000000000000000e+00 0.0000000000000000e+00  1.0002343273631822e+00 0.0000000000000000e+00 0.0000000000000000e+00  1.0002234059351989e+00 0.0000000000000000e+00 0.0000000000000000e+00  1.0002062035302988e+00 0.0000000000000000e+00 0.0000000000000000e+00  1.0001857556961637e+00 0.0000000000000000e+00 0.0000000000000000e+00  1.0001641823380587e+00 0.0000000000000000e+00 0.0000000000000000e+00  1.0001428553098619e+00 0.0000000000000000e+00 0.0000000000000000e+00  1.0001226969927131e+00 0.0000000000000000e+00 0.0000000000000000e+00  1.0001041922409091e+00 0.0000000000000000e+00 0.0000000000000000e+00  1.0000876020460767e+00 0.0000000000000000e+00 0.0000000000000000e+00  1.0000729818148442e+00 0.0000000000000000e+00 0.0000000000000000e+00  1.0000603114999465e+00 0.0000000000000000e+00 0.0000000000000000e+00  1.0000494438739258e+00 0.0000000000000000e+00 0.0000000000000000e+00  1.0000402455222115e+00 0.0000000000000000e+00 0.0000000000000000e+00  1.0000325224695481e+00 0.0000000000000000e+00 0.0000000000000000e+00  1.0000260962297118e+00 0.0000000000000000e+00 0.0000000000000000e+00  1.0000208033607920e+00 0.0000000000000000e+00 0.0000000000000000e+00  1.0000164651352601e+00 0.0000000000000000e+00 0.0000000000000000e+00  1.0000129417743873e+00 0.0000000000000000e+00 0.0000000000000000e+00  1.0000100968084151e+00 0.0000000000000000e+00 0.0000000000000000e+00  1.0000078202995923e+00 0.0000000000000000e+00 0.0000000000000000e+00  1.0000060056144315e+00 0.0000000000000000e+00 0.0000000000000000e+00  1.0000045731279339e+00 0.0000000000000000e+00 0.0000000000000000e+00  1.0000034479301836e+00 0.0000000000000000e+00 0.0000000000000000e+00  1.0000025711038425e+00 0.0000000000000000e+00 0.0000000000000000e+00  1.0000018945007703e+00 0.0000000000000000e+00 0.0000000000000000e+00  1.0000013748233307e+00 0.0000000000000000e+00 0.0000000000000000e+00  1.0000009802337262e+00 0.0000000000000000e+00 0.0000000000000000e+00  1.0000006831572961e+00 0.0000000000000000e+00 0.0000000000000000e+00  1.0000004625361456e+00 0.0000000000000000e+00 0.0000000000000000e+00  1.0000003001711846e+00 0.0000000000000000e+00 0.0000000000000000e+00  1.0000001829123990e+00 0.0000000000000000e+00 0.0000000000000000e+00  1.0000000995664544e+00 0.0000000000000000e+00 0.0000000000000000e+00  1.0000000417906505e+00 0.0000000000000000e+00 0.0000000000000000e+00  1.0000000030915106e+00 0.0000000000000000e+00 0.0000000000000000e+00  9.9999997816783404e-01 0.0000000000000000e+00 0.0000000000000000e+00  9.9999996327877450e-01 0.0000000000000000e+00 0.0000000000000000e+00  9.9999995545323539e-01 0.0000000000000000e+00 0.0000000000000000e+00  9.9999995252236473e-01 0.0000000000000000e+00 0.0000000000000000e+00  9.9999995281643395e-01 0.0000000000000000e+00 0.0000000000000000e+00  9.9999995517425777e-01 0.0000000000000000e+00 0.0000000000000000e+00  9.9999995873292646e-01 0.0000000000000000e+00 0.0000000000000000e+00  9.9999996290362259e-01 0.0000000000000000e+00 0.0000000000000000e+00  9.9999996726832319e-01 0.0000000000000000e+00 0.0000000000000000e+00  9.9999997155593823e-01 0.0000000000000000e+00 0.0000000000000000e+00  9.9999997559777576e-01 0.0000000000000000e+00 0.0000000000000000e+00  9.9999997930010676e-01 0.0000000000000000e+00 0.0000000000000000e+00  9.9999998261089862e-01 0.0000000000000000e+00 0.0000000000000000e+00  9.9999998552499425e-01 0.0000000000000000e+00 0.0000000000000000e+00  9.9999998804755541e-01 0.0000000000000000e+00 0.0000000000000000e+00  9.9999999020737496e-01 0.0000000000000000e+00 0.0000000000000000e+00  9.9999999203655565e-01 0.0000000000000000e+00 0.0000000000000000e+00  9.9999999356790337e-01 0.0000000000000000e+00 0.0000000000000000e+00  9.9999999484185076e-01 0.0000000000000000e+00 0.0000000000000000e+00  9.9999999589135857e-01 0.0000000000000000e+00 0.0000000000000000e+00  9.9999999675041618e-01 0.0000000000000000e+00 0.0000000000000000e+00  9.9999999744706969e-01 0.0000000000000000e+00 0.0000000000000000e+00  9.9999999800966599e-01 0.0000000000000000e+00 0.0000000000000000e+00  9.9999999845966048e-01 0.0000000000000000e+00 0.0000000000000000e+00  9.9999999881784452e-01 0.0000000000000000e+00 0.0000000000000000e+00  9.9999999910085269e-01 0.0000000000000000e+00 0.0000000000000000e+00  9.9999999932243966e-01 0.0000000000000000e+00 0.0000000000000000e+00  9.9999999949523488e-01 0.0000000000000000e+00 0.0000000000000000e+00  9.9999999962862562e-01 0.0000000000000000e+00 0.0000000000000000e+00  9.9999999973085707e-01 0.0000000000000000e+00 0.0000000000000000e+00  9.9999999980834786e-01 0.0000000000000000e+00 0.0000000000000000e+00  9.9999999986667931e-01 0.0000000000000000e+00 0.0000000000000000e+00  9.9999999990996380e-01 0.0000000000000000e+00 0.0000000000000000e+00  9.9999999994172539e-01 0.0000000000000000e+00 0.0000000000000000e+00  9.9999999996467659e-01 0.0000000000000000e+00 0.0000000000000000e+00  9.9999999998091882e-01 0.0000000000000000e+00 0.0000000000000000e+00  9.9999999999218758e-01 0.0000000000000000e+00 0.0000000000000000e+00  9.9999999999972877e-01 0.0000000000000000e+00 0.0000000000000000e+00  1.0000000000045373e+00 0.0000000000000000e+00 0.0000000000000000e+00  1.0000000000073861e+00 0.0000000000000000e+00 0.0000000000000000e+00  1.0000000000088383e+00 0.0000000000000000e+00 0.0000000000000000e+00  1.0000000000093465e+00 0.0000000000000000e+00 0.0000000000000000e+00  1.0000000000092022e+00 0.0000000000000000e+00 0.0000000000000000e+00  1.0000000000086893e+00 0.0000000000000000e+00 0.0000000000000000e+00  1.0000000000079692e+00 0.0000000000000000e+00 0.0000000000000000e+00  1.0000000000071447e+00 0.0000000000000000e+00 0.0000000000000000e+00  1.0000000000062839e+00 0.0000000000000000e+00 0.0000000000000000e+00  1.0000000000054243e+00 0.0000000000000000e+00 0.0000000000000000e+00  1.0000000000046263e+00 0.0000000000000000e+00 0.0000000000000000e+00  1.0000000000038727e+00 0.0000000000000000e+00 0.0000000000000000e+00  1.0000000000032025e+00 0.0000000000000000e+00 0.0000000000000000e+00  1.0000000000025979e+00 0.0000000000000000e+00 0.0000000000000000e+00  1.0000000000020948e+00 0.0000000000000000e+00 0.0000000000000000e+00  1.0000000000016889e+00 0.0000000000000000e+00 0.0000000000000000e+00  1.0000000000013558e+00 0.0000000000000000e+00 0.0000000000000000e+00  1.0000000000010827e+00 0.0000000000000000e+00 0.0000000000000000e+00  1.0000000000008415e+00 0.0000000000000000e+00 0.0000000000000000e+00  1.0000000000006586e+00 0.0000000000000000e+00 0.0000000000000000e+00  1.0000000000004901e+00 0.0000000000000000e+00 0.0000000000000000e+00  1.0000000000003548e+00 0.0000000000000000e+00 0.0000000000000000e+00  1.0000000000002285e+00 0.0000000000000000e+00 0.0000000000000000e+00  1.0000000000001432e+00 0.0000000000000000e+00 0.0000000000000000e+00  1.0000000000000826e+00 0.0000000000000000e+00 0.0000000000000000e+00  1.0000000000000384e+00 0.0000000000000000e+00 0.0000000000000000e+00  9.9999999999998368e-01 0.0000000000000000e+00 0.0000000000000000e+00  9.9999999999993805e-01 0.0000000000000000e+00 0.0000000000000000e+00  9.9999999999992806e-01 0.0000000000000000e+00 0.0000000000000000e+00  9.9999999999991807e-01 0.0000000000000000e+00 0.0000000000000000e+00  9.9999999999986600e-01 0.0000000000000000e+00 0.0000000000000000e+00  9.9999999999983025e-01 0.0000000000000000e+00 0.0000000000000000e+00  9.9999999999979439e-01 0.0000000000000000e+00 0.0000000000000000e+00  9.9999999999974709e-01 0.0000000000000000e+00 0.0000000000000000e+00  9.9999999999971834e-01 0.0000000000000000e+00 0.0000000000000000e+00  9.9999999999968070e-01 0.0000000000000000e+00 0.0000000000000000e+00  9.9999999999967126e-01 0.0000000000000000e+00 0.0000000000000000e+00  9.9999999999968825e-01 0.0000000000000000e+00 0.0000000000000000e+00  9.9999999999972489e-01 0.0000000000000000e+00 0.0000000000000000e+00  9.9999999999973732e-01 0.0000000000000000e+00 0.0000000000000000e+00  9.9999999999978717e-01 0.0000000000000000e+00 0.0000000000000000e+00  9.9999999999982259e-01 0.0000000000000000e+00 0.0000000000000000e+00  9.9999999999987843e-01 0.0000000000000000e+00 0.0000000000000000e+00  9.9999999999989908e-01 0.0000000000000000e+00 0.0000000000000000e+00  9.9999999999991507e-01 0.0000000000000000e+00 0.0000000000000000e+00  9.9999999999993960e-01 0.0000000000000000e+00 0.0000000000000000e+00  9.9999999999996625e-01 0.0000000000000000e+00 0.0000000000000000e+00  9.9999999999999223e-01 0.0000000000000000e+00 0.0000000000000000e+00  9.9653979238755730e-01 0.0000000000000000e+00 0.0000000000000000e+00  9.8615916955022309e-01 0.0000000000000000e+00 0.0000000000000000e+00  9.6885813148802113e-01 0.0000000000000000e+00 0.0000000000000000e+00  9.4463667820094877e-01 0.0000000000000000e+00 0.0000000000000000e+00  9.1349480968900298e-01 0.0000000000000000e+00 0.0000000000000000e+00  8.7543252595218413e-01 0.0000000000000000e+00 0.0000000000000000e+00  8.3044982699049241e-01 0.0000000000000000e+00 0.0000000000000000e+00  7.7854671280392751e-01 0.0000000000000000e+00 0.0000000000000000e+00  7.1972318339231633e-01 0.0000000000000000e+00 0.0000000000000000e+00  6.5397923875560171e-01 0.0000000000000000e+00 0.0000000000000000e+00  5.8131487889393696e-01 0.0000000000000000e+00 0.0000000000000000e+00  5.0173010380732164e-01 0.0000000000000000e+00 0.0000000000000000e+00  4.1522491349575735e-01 0.0000000000000000e+00 0.0000000000000000e+00  3.2179930795924255e-01 0.0000000000000000e+00 0.0000000000000000e+00  2.2145328719777768e-01 0.0000000000000000e+00 0.0000000000000000e+00  1.1418685121136318e-01 0.0000000000000000e+00 0.0000000000000000e+00  0.0000000000000000e+00 0.0000000000000000e+00 0.0000000000000000e+00  0.0000000000000000e+00 0.0000000000000000e+00 0.0000000000000000e+00  0.0000000000000000e+00 0.0000000000000000e+00 0.0000000000000000e+00  0.0000000000000000e+00 0.0000000000000000e+00 0.0000000000000000e+00  0.0000000000000000e+00 0.0000000000000000e+00 0.0000000000000000e+00  0.0000000000000000e+00 0.0000000000000000e+00 0.0000000000000000e+00  0.0000000000000000e+00 0.0000000000000000e+00 0.0000000000000000e+00  0.0000000000000000e+00 0.0000000000000000e+00 0.0000000000000000e+00  0.0000000000000000e+00 0.0000000000000000e+00 0.0000000000000000e+00  0.0000000000000000e+00 0.0000000000000000e+00 0.0000000000000000e+00  0.0000000000000000e+00 0.0000000000000000e+00 0.0000000000000000e+00  0.0000000000000000e+00 0.0000000000000000e+00 0.0000000000000000e+00  0.0000000000000000e+00 0.0000000000000000e+00 0.0000000000000000e+00  0.0000000000000000e+00 0.0000000000000000e+00 0.0000000000000000e+00  0.0000000000000000e+00 0.0000000000000000e+00 0.0000000000000000e+00  0.0000000000000000e+00 0.0000000000000000e+00 0.0000000000000000e+00  0.0000000000000000e+00 0.0000000000000000e+00 0.0000000000000000e+00  0.0000000000000000e+00 0.0000000000000000e+00 0.0000000000000000e+00  0.0000000000000000e+00 0.0000000000000000e+00 0.0000000000000000e+00  0.0000000000000000e+00 0.0000000000000000e+00 0.0000000000000000e+00  0.0000000000000000e+00 0.0000000000000000e+00 0.0000000000000000e+00  0.0000000000000000e+00 0.0000000000000000e+00 0.0000000000000000e+00  0.0000000000000000e+00 0.0000000000000000e+00 0.0000000000000000e+00  0.0000000000000000e+00 0.0000000000000000e+00 0.0000000000000000e+00  0.0000000000000000e+00 0.0000000000000000e+00 0.0000000000000000e+00  0.0000000000000000e+00 0.0000000000000000e+00 0.0000000000000000e+00  0.0000000000000000e+00 0.0000000000000000e+00 0.0000000000000000e+00  0.0000000000000000e+00 0.0000000000000000e+00 0.0000000000000000e+00  0.0000000000000000e+00 0.0000000000000000e+00 0.0000000000000000e+00  0.0000000000000000e+00 0.0000000000000000e+00 0.0000000000000000e+00  0.0000000000000000e+00 0.0000000000000000e+00 0.0000000000000000e+00  0.0000000000000000e+00 0.0000000000000000e+00 0.0000000000000000e+00  0.0000000000000000e+00 0.0000000000000000e+00 0.0000000000000000e+00  0.0000000000000000e+00 0.0000000000000000e+00 0.0000000000000000e+00  0.0000000000000000e+00 0.0000000000000000e+00 0.0000000000000000e+00  0.0000000000000000e+00 0.0000000000000000e+00 0.0000000000000000e+00  0.0000000000000000e+00 0.0000000000000000e+00 0.0000000000000000e+00  0.0000000000000000e+00 0.0000000000000000e+00 0.0000000000000000e+00  0.0000000000000000e+00 0.0000000000000000e+00 0.0000000000000000e+00  0.0000000000000000e+00 0.0000000000000000e+00 0.0000000000000000e+00  0.0000000000000000e+00 0.0000000000000000e+00 0.0000000000000000e+00  0.0000000000000000e+00 0.0000000000000000e+00 0.0000000000000000e+00  0.0000000000000000e+00 0.0000000000000000e+00 0.0000000000000000e+00  0.0000000000000000e+00 0.0000000000000000e+00 0.0000000000000000e+00  0.0000000000000000e+00 0.0000000000000000e+00 0.0000000000000000e+00  0.0000000000000000e+00 0.0000000000000000e+00 0.0000000000000000e+00  0.0000000000000000e+00 0.0000000000000000e+00 0.0000000000000000e+00  0.0000000000000000e+00 0.0000000000000000e+00 0.0000000000000000e+00  0.0000000000000000e+00 0.0000000000000000e+00 0.0000000000000000e+00  0.0000000000000000e+00 0.0000000000000000e+00 0.0000000000000000e+00  0.0000000000000000e+00 0.0000000000000000e+00 0.0000000000000000e+00  0.0000000000000000e+00 0.0000000000000000e+00 0.0000000000000000e+00  0.0000000000000000e+00 0.0000000000000000e+00 0.0000000000000000e+00  0.0000000000000000e+00 0.0000000000000000e+00 0.0000000000000000e+00  0.0000000000000000e+00 0.0000000000000000e+00 0.0000000000000000e+00  0.0000000000000000e+00 0.0000000000000000e+00 0.0000000000000000e+00  0.0000000000000000e+00 0.0000000000000000e+00 0.0000000000000000e+00  0.0000000000000000e+00 0.0000000000000000e+00 0.0000000000000000e+00  0.0000000000000000e+00 0.0000000000000000e+00 0.0000000000000000e+00  0.0000000000000000e+00 0.0000000000000000e+00 0.0000000000000000e+00  0.0000000000000000e+00 0.0000000000000000e+00 0.0000000000000000e+00  0.0000000000000000e+00 0.0000000000000000e+00 0.0000000000000000e+00  0.0000000000000000e+00 0.0000000000000000e+00 0.0000000000000000e+00  0.0000000000000000e+00 0.0000000000000000e+00 0.0000000000000000e+00  0.0000000000000000e+00 0.0000000000000000e+00 0.0000000000000000e+00  0.0000000000000000e+00 0.0000000000000000e+00 0.0000000000000000e+00  0.0000000000000000e+00 0.0000000000000000e+00 0.0000000000000000e+00  0.0000000000000000e+00 0.0000000000000000e+00 0.0000000000000000e+00  0.0000000000000000e+00 0.0000000000000000e+00 0.0000000000000000e+00  0.0000000000000000e+00 0.0000000000000000e+00 0.0000000000000000e+00  0.0000000000000000e+00 0.0000000000000000e+00 0.0000000000000000e+00  0.0000000000000000e+00 0.0000000000000000e+00 0.0000000000000000e+00  0.0000000000000000e+00 0.0000000000000000e+00 0.0000000000000000e+00  0.0000000000000000e+00 0.0000000000000000e+00 0.0000000000000000e+00  0.0000000000000000e+00 0.0000000000000000e+00 0.0000000000000000e+00  0.00000000